Header

250 atoms

1 atom types

0.000000 14.332500 xlo xhi
0.000000 14.332500 ylo yhi
0.000000 14.332500 zlo zhi


Atoms

1 1 1.433250 1.433250 1.433250
2 1 1.433250 1.433250 4.299750
3 1 1.433250 1.433250 7.166250
4 1 1.433250 1.433250 10.032750
5 1 1.433250 1.433250 12.899250
6 1 1.433250 4.299750 1.433250
7 1 1.433250 4.299750 4.299750
8 1 1.433250 4.299750 7.166250
9 1 1.433250 4.299750 10.032750
10 1 1.433250 4.299750 12.899250
11 1 1.433250 7.166250 1.433250
12 1 1.433250 7.166250 4.299750
13 1 1.433250 7.166250 7.166250
14 1 1.433250 7.166250 10.032750
15 1 1.433250 7.166250 12.899250
16 1 1.433250 10.032750 1.433250
17 1 1.433250 10.032750 4.299750
18 1 1.433250 10.032750 7.166250
19 1 1.433250 10.032750 10.032750
20 1 1.433250 10.032750 12.899250
21 1 1.433250 12.899250 1.433250
22 1 1.433250 12.899250 4.299750
23 1 1.433250 12.899250 7.166250
24 1 1.433250 12.899250 10.032750
25 1 1.433250 12.899250 12.899250
26 1 4.299750 1.433250 1.433250
27 1 4.299750 1.433250 4.299750
28 1 4.299750 1.433250 7.166250
29 1 4.299750 1.433250 10.032750
30 1 4.299750 1.433250 12.899250
31 1 4.299750 4.299750 1.433250
32 1 4.299750 4.299750 4.299750
33 1 4.299750 4.299750 7.166250
34 1 4.299750 4.299750 10.032750
35 1 4.299750 4.299750 12.899250
36 1 4.299750 7.166250 1.433250
37 1 4.299750 7.166250 4.299750
38 1 4.299750 7.166250 7.166250
39 1 4.299750 7.166250 10.032750
40 1 4.299750 7.166250 12.899250
41 1 4.299750 10.032750 1.433250
42 1 4.299750 10.032750 4.299750
43 1 4.299750 10.032750 7.166250
44 1 4.299750 10.032750 10.032750
45 1 4.299750 10.032750 12.899250
46 1 4.299750 12.899250 1.433250
47 1 4.299750 12.899250 4.299750
48 1 4.299750 12.899250 7.166250
49 1 4.299750 12.899250 10.032750
50 1 4.299750 12.899250 12.899250
51 1 7.166250 1.433250 1.433250
52 1 7.166250 1.433250 4.299750
53 1 7.166250 1.433250 7.166250
54 1 7.166250 1.433250 10.032750
55 1 7.166250 1.433250 12.899250
56 1 7.166250 4.299750 1.433250
57 1 7.166250 4.299750 4.299750
58 1 7.166250 4.299750 7.166250
59 1 7.166250 4.299750 10.032750
60 1 7.166250 4.299750 12.899250
61 1 7.166250 7.166250 1.433250
62 1 7.166250 7.166250 4.299750
63 1 7.166250 7.166250 7.166250
64 1 7.166250 7.166250 10.032750
65 1 7.166250 7.166250 12.899250
66 1 7.166250 10.032750 1.433250
67 1 7.166250 10.032750 4.299750
68 1 7.166250 10.032750 7.166250
69 1 7.166250 10.032750 10.032750
70 1 7.166250 10.032750 12.899250
71 1 7.166250 12.899250 1.433250
72 1 7.166250 12.899250 4.299750
73 1 7.166250 12.899250 7.166250
74 1 7.166250 12.899250 10.032750
75 1 7.166250 12.899250 12.899250
76 1 10.032750 1.433250 1.433250
77 1 10.032750 1.433250 4.299750
78 1 10.032750 1.433250 7.166250
79 1 10.032750 1.433250 10.032750
80 1 10.032750 1.433250 12.899250
81 1 10.032750 4.299750 1.433250
82 1 10.032750 4.299750 4.299750
83 1 10.032750 4.299750 7.166250
84 1 10.032750 4.299750 10.032750
85 1 10.032750 4.299750 12.899250
86 1 10.032750 7.166250 1.433250
87 1 10.032750 7.166250 4.299750
88 1 10.032750 7.166250 7.166250
89 1 10.032750 7.166250 10.032750
90 1 10.032750 7.166250 12.899250
91 1 10.032750 10.032750 1.433250
92 1 10.032750 10.032750 4.299750
93 1 10.032750 10.032750 7.166250
94 1 10.032750 10.032750 10.032750
95 1 10.032750 10.032750 12.899250
96 1 10.032750 12.899250 1.433250
97 1 10.032750 12.899250 4.299750
98 1 10.032750 12.899250 7.166250
99 1 10.032750 12.899250 10.032750
100 1 10.032750 12.899250 12.899250
101 1 12.899250 1.433250 1.433250
102 1 12.899250 1.433250 4.299750
103 1 12.899250 1.433250 7.166250
104 1 12.899250 1.433250 10.032750
105 1 12.899250 1.433250 12.899250
106 1 12.899250 4.299750 1.433250
107 1 12.899250 4.299750 4.299750
108 1 12.899250 4.299750 7.166250
109 1 12.899250 4.299750 10.032750
110 1 12.899250 4.299750 12.899250
111 1 12.899250 7.166250 1.433250
112 1 12.899250 7.166250 4.299750
113 1 12.899250 7.166250 7.166250
114 1 12.899250 7.166250 10.032750
115 1 12.899250 7.166250 12.899250
116 1 12.899250 10.032750 1.433250
117 1 12.899250 10.032750 4.299750
118 1 12.899250 10.032750 7.166250
119 1 12.899250 10.032750 10.032750
120 1 12.899250 10.032750 12.899250
121 1 12.899250 12.899250 1.433250
122 1 12.899250 12.899250 4.299750
123 1 12.899250 12.899250 7.166250
124 1 12.899250 12.899250 10.032750
125 1 12.899250 12.899250 12.899250
126 1 0.000000 0.000000 0.000000
127 1 0.000000 0.000000 2.866500
128 1 0.000000 0.000000 5.733000
129 1 0.000000 0.000000 8.599500
130 1 0.000000 0.000000 11.466000
131 1 0.000000 2.866500 0.000000
132 1 0.000000 2.866500 2.866500
133 1 0.000000 2.866500 5.733000
134 1 0.000000 2.866500 8.599500
135 1 0.000000 2.866500 11.466000
136 1 0.000000 5.733000 0.000000
137 1 0.000000 5.733000 2.866500
138 1 0.000000 5.733000 5.733000
139 1 0.000000 5.733000 8.599500
140 1 0.000000 5.733000 11.466000
141 1 0.000000 8.599500 0.000000
142 1 0.000000 8.599500 2.866500
143 1 0.000000 8.599500 5.733000
144 1 0.000000 8.599500 8.599500
145 1 0.000000 8.599500 11.466000
146 1 0.000000 11.466000 0.000000
147 1 0.000000 11.466000 2.866500
148 1 0.000000 11.466000 5.733000
149 1 0.000000 11.466000 8.599500
150 1 0.000000 11.466000 11.466000
151 1 2.866500 0.000000 0.000000
152 1 2.866500 0.000000 2.866500
153 1 2.866500 0.000000 5.733000
154 1 2.866500 0.000000 8.599500
155 1 2.866500 0.000000 11.466000
156 1 2.866500 2.866500 0.000000
157 1 2.866500 2.866500 2.866500
158 1 2.866500 2.866500 5.733000
159 1 2.866500 2.866500 8.599500
160 1 2.866500 2.866500 11.466000
161 1 2.866500 5.733000 0.000000
162 1 2.866500 5.733000 2.866500
163 1 2.866500 5.733000 5.733000
164 1 2.866500 5.733000 8.599500
165 1 2.866500 5.733000 11.466000
166 1 2.866500 8.599500 0.000000
167 1 2.866500 8.599500 2.866500
168 1 2.866500 8.599500 5.733000
169 1 2.866500 8.599500 8.599500
170 1 2.866500 8.599500 11.466000
171 1 2.866500 11.466000 0.000000
172 1 2.866500 11.466000 2.866500
173 1 2.866500 11.466000 5.733000
174 1 2.866500 11.466000 8.599500
175 1 2.866500 11.466000 11.466000
176 1 5.733000 0.000000 0.000000
177 1 5.733000 0.000000 2.866500
178 1 5.733000 0.000000 5.733000
179 1 5.733000 0.000000 8.599500
180 1 5.733000 0.000000 11.466000
181 1 5.733000 2.866500 0.000000
182 1 5.733000 2.866500 2.866500
183 1 5.733000 2.866500 5.733000
184 1 5.733000 2.866500 8.599500
185 1 5.733000 2.866500 11.466000
186 1 5.733000 5.733000 0.000000
187 1 5.733000 5.733000 2.866500
188 1 5.733000 5.733000 5.733000
189 1 5.733000 5.733000 8.599500
190 1 5.733000 5.733000 11.466000
191 1 5.733000 8.599500 0.000000
192 1 5.733000 8.599500 2.866500
193 1 5.733000 8.599500 5.733000
194 1 5.733000 8.599500 8.599500
195 1 5.733000 8.599500 11.466000
196 1 5.733000 11.466000 0.000000
197 1 5.733000 11.466000 2.866500
198 1 5.733000 11.466000 5.733000
199 1 5.733000 11.466000 8.599500
200 1 5.733000 11.466000 11.466000
201 1 8.599500 0.000000 0.000000
202 1 8.599500 0.000000 2.866500
203 1 8.599500 0.000000 5.733000
204 1 8.599500 0.000000 8.599500
205 1 8.599500 0.000000 11.466000
206 1 8.599500 2.866500 0.000000
207 1 8.599500 2.866500 2.866500
208 1 8.599500 2.866500 5.733000
209 1 8.599500 2.866500 8.599500
210 1 8.599500 2.866500 11.466000
211 1 8.599500 5.733000 0.000000
212 1 8.599500 5.733000 2.866500
213 1 8.599500 5.733000 5.733000
214 1 8.599500 5.733000 8.599500
215 1 8.599500 5.733000 11.466000
216 1 8.599500 8.599500 0.000000
217 1 8.599500 8.599500 2.866500
218 1 8.599500 8.599500 5.733000
219 1 8.599500 8.599500 8.599500
220 1 8.599500 8.599500 11.466000
221 1 8.599500 11.466000 0.000000
222 1 8.599500 11.466000 2.866500
223 1 8.599500 11.466000 5.733000
224 1 8.599500 11.466000 8.599500
225 1 8.599500 11.466000 11.466000
226 1 11.466000 0.000000 0.000000
227 1 11.466000 0.000000 2.866500
228 1 11.466000 0.000000 5.733000
229 1 11.466000 0.000000 8.599500
230 1 11.466000 0.000000 11.466000
231 1 11.466000 2.866500 0.000000
232 1 11.466000 2.866500 2.866500
233 1 11.466000 2.866500 5.733000
234 1 11.466000 2.866500 8.599500
235 1 11.466000 2.866500 11.466000
236 1 11.466000 5.733000 0.000000
237 1 11.466000 5.733000 2.866500
238 1 11.466000 5.733000 5.733000
239 1 11.466000 5.733000 8.599500
240 1 11.466000 5.733000 11.466000
241 1 11.466000 8.599500 0.000000
242 1 11.466000 8.599500 2.866500
243 1 11.466000 8.599500 5.733000
244 1 11.466000 8.599500 8.599500
245 1 11.466000 8.599500 11.466000
246 1 11.466000 11.466000 0.000000
247 1 11.466000 11.466000 2.866500
248 1 11.466000 11.466000 5.733000
249 1 11.466000 11.466000 8.599500
250 1 11.466000 11.466000 11.466000
